------------------------------------------------------------
          Invoking FHI-aims ...

          When using FHI-aims, please cite the following reference:

            Volker Blum, Ralf Gehrke, Felix Hanke, Paula Havu,
            Ville Havu, Xinguo Ren, Karsten Reuter, and Matthias Scheffler,
            'Ab Initio Molecular Simulations with Numeric Atom-Centered Orbitals',
            Computer Physics Communications 180, 2175-2196 (2009)

          In addition, many other developments in FHI-aims are likely important for
          your particular application. If so, please cite them. A partial list of references
          is written at the end of this file. Thank you for giving credit to the authors
          of these developments.

          For general information about FHI-aims please find us at

            https://fhi-aims.org

          Online tutorials can be found at

            https://fhi-aims-club.gitlab.io/tutorials/tutorials-overview/

          For any questions about FHI-aims, please visit our slack channel at

            https://fhi-aims.slack.com

          and our main development and support site at

            https://aims-git.rz-berlin.mpg.de .

          The latter site, in particular, has a wiki to collect information, as well
          as an issue tracker to log discussions, suggest improvements, and report issues
          or bugs. https://aims-git.rz-berlin.mpg.de is also the main development site
          of the project and all new and updated code versions can be obtained there.
          Please send an email to aims-coordinators@fhi-berlin.mpg.de and we will add
          you to these sites. They are for you and everyone is welcome there.

------------------------------------------------------------



  Date     :  20260417, Time     :  150719.217
  Time zero on CPU 1             :   0.897080000000000E-01  s.
  Internal wall clock time zero  :           545670439.217  s.

  FHI-aims created a unique identifier for this run for later identification
  aims_uuid : E1DD51E7-405F-48A7-AFA8-EB5EA65F4088

  Build configuration of the current instance of FHI-aims
  -------------------------------------------------------
  FHI-aims version      : 260110
  Commit number         : 3160b20f8
  CMake host system     : Linux-5.14.0-611.16.1.el9_7.x86_64
  CMake version         : 3.26.3
  OS Distribution       : Rocky Linux 9.7 (Blue Onyx)
  Built on              : Intel(R) Xeon(R) Gold 6230 CPU @ 2.10GHz
  Fortran compiler      : /software/easybuild/software/OpenMPI/4.1.5-GCC-12.3.0/bin/mpifort (GNU) version 12.3.0
  Fortran compiler flags: -fallow-argument-mismatch -march=native -ffree-line-length-none -fallow-argument-mismatch -march=native -ffree-line-length-none
  C compiler            : /software/easybuild/software/GCCcore/12.3.0/bin/gcc (GNU) version 12.3.0
  C compiler flags      :  -march=native
  C++ compiler          : /software/easybuild/software/GCCcore/12.3.0/bin/g++ (GNU) version 12.3.0
  C++ compiler flags    :  -march=native
  HIP compiler          :
  HIP compiler flags    :
  HIP GPU arch          :
  Using MPI
  Using ScaLAPACK
  Using LibXC
  Using i-PI
  Using RLSY
  Linking against: /software/easybuild/software/ScaLAPACK/2.2.0-gompi-2023a-fb/lib/libscalapack.so
                   /software/easybuild/software/OpenBLAS/0.3.23-GCC-12.3.0/lib/libopenblas.so

  Using        4 parallel tasks.
  Task        0 on host hetmathsys2.scrtp.warwick.ac.uk reporting.
  Task        1 on host hetmathsys2.scrtp.warwick.ac.uk reporting.
  Task        2 on host hetmathsys2.scrtp.warwick.ac.uk reporting.
  Task        3 on host hetmathsys2.scrtp.warwick.ac.uk reporting.

  Obtaining array dimensions for all initial allocations:
  
  -----------------------------------------------------------------------
  Parsing control.in (first pass over file, find array dimensions only).
  The contents of control.in will be repeated verbatim below
  unless switched off by setting 'verbatim_writeout .false.' .
  in the first line of control.in .
  -----------------------------------------------------------------------
  
  xc                        pbe
  relativistic              atomic_zora scalar
  spin                      none
  packed_matrix_format      index
  output_rs_matrices        plain
  calculate_all_eigenstates .true.
  
  
  ################################################################################
  #
  #  FHI-aims code project
  #  VB, Fritz-Haber Institut, 2009
  #
  #  Suggested "light" defaults for H atom (to be pasted into control.in file)
  #  Be sure to double-check any results obtained with these settings for post-processing,
  #  e.g., with the "tight" defaults and larger basis sets.
  #
  ################################################################################
    species        H
  #     global species definitions
      nucleus             1
      mass                1.00794
  #
      l_hartree           4
  #
      cut_pot             3.5  1.5  1.0
      basis_dep_cutoff    1e-4
  #
      radial_base         24 5.0
      radial_multiplier   1
      angular_grids       specified
        division   0.2421   50
        division   0.3822  110
        division   0.4799  194
        division   0.5341  302
  #      division   0.5626  434
  #      division   0.5922  590
  #      division   0.6542  770
  #      division   0.6868 1202
  #      outer_grid  770
        outer_grid  302
  ################################################################################
  #
  #  Definition of "minimal" basis
  #
  ################################################################################
  #     valence basis states
      valence      1  s   1.
  #     ion occupancy
      ion_occ      1  s   0.5
  ################################################################################
  #
  #  Suggested additional basis functions. For production calculations,
  #  uncomment them one after another (the most important basis functions are
  #  listed first).
  #
  #  Basis constructed for dimers: 0.5 A, 0.7 A, 1.0 A, 1.5 A, 2.5 A
  #
  ################################################################################
  #  "First tier" - improvements: -1014.90 meV to -62.69 meV
       hydro 2 s 2.1
       hydro 2 p 3.5
  #  "Second tier" - improvements: -12.89 meV to -1.83 meV
  #     hydro 1 s 0.85
  #     hydro 2 p 3.7
  #     hydro 2 s 1.2
  #     hydro 3 d 7
  #  "Third tier" - improvements: -0.25 meV to -0.12 meV
  #     hydro 4 f 11.2
  #     hydro 3 p 4.8
  #     hydro 4 d 9
  #     hydro 3 s 3.2
  ################################################################################
  #
  #  FHI-aims code project
  #  VB, Fritz-Haber Institut, 2009
  #
  #  Suggested "light" defaults for O atom (to be pasted into control.in file)
  #  Be sure to double-check any results obtained with these settings for post-processing,
  #  e.g., with the "tight" defaults and larger basis sets.
  #
  ################################################################################
    species        O
  #     global species definitions
      nucleus             8
      mass                15.9994
  #
      l_hartree           4
  #
      cut_pot             3.5  1.5  1.0
      basis_dep_cutoff    1e-4
  #
      radial_base         36 5.0
      radial_multiplier   1
       angular_grids specified
        division   0.2659   50
        division   0.4451  110
        division   0.6052  194
        division   0.7543  302
  #      division   0.8014  434
  #      division   0.8507  590
  #      division   0.8762  770
  #      division   0.9023  974
  #      division   1.2339 1202
  #      outer_grid 974
        outer_grid 302
  ################################################################################
  #
  #  Definition of "minimal" basis
  #
  ################################################################################
  #     valence basis states
      valence      2  s   2.
      valence      2  p   4.
  #     ion occupancy
      ion_occ      2  s   1.
      ion_occ      2  p   3.
  ################################################################################
  #
  #  Suggested additional basis functions. For production calculations,
  #  uncomment them one after another (the most important basis functions are
  #  listed first).
  #
  #  Constructed for dimers: 1.0 A, 1.208 A, 1.5 A, 2.0 A, 3.0 A
  #
  ################################################################################
  #  "First tier" - improvements: -699.05 meV to -159.38 meV
       hydro 2 p 1.8
       hydro 3 d 7.6
       hydro 3 s 6.4
  #  "Second tier" - improvements: -49.91 meV to -5.39 meV
  #     hydro 4 f 11.6
  #     hydro 3 p 6.2
  #     hydro 3 d 5.6
  #     hydro 5 g 17.6
  #     hydro 1 s 0.75
  #  "Third tier" - improvements: -2.83 meV to -0.50 meV
  #     ionic 2 p auto
  #     hydro 4 f 10.8
  #     hydro 4 d 4.7
  #     hydro 2 s 6.8
  #  "Fourth tier" - improvements: -0.40 meV to -0.12 meV
  #     hydro 3 p 5
  #     hydro 3 s 3.3
  #     hydro 5 g 15.6
  #     hydro 4 f 17.6
  #     hydro 4 d 14
  # Further basis functions - -0.08 meV and below
  #     hydro 3 s 2.1
  #     hydro 4 d 11.6
  #     hydro 3 p 16
  #     hydro 2 s 17.2
  
  -----------------------------------------------------------------------
  Completed first pass over input file control.in .
  -----------------------------------------------------------------------
  
  
  -----------------------------------------------------------------------
  Parsing geometry.in (first pass over file, find array dimensions only).
  The contents of geometry.in will be repeated verbatim below
  unless switched off by setting 'verbatim_writeout .false.' .
  in the first line of geometry.in .
  -----------------------------------------------------------------------
  
  atom 0.0000000000000000 0.0000000000000000 0.1192620000000000 O
  atom 0.0000000000000000 0.7632390000000000 -0.4770470000000000 H
  atom 0.0000000000000000 -0.7632390000000000 -0.4770470000000000 H
  atom 15.0000000000000000 0.0000000000000000 0.1192620000000000 O
  atom 15.0000000000000000 0.7632390000000000 -0.4770470000000000 H
  atom 15.0000000000000000 -0.7632390000000000 -0.4770470000000000 H
  
  -----------------------------------------------------------------------
  Completed first pass over input file geometry.in .
  -----------------------------------------------------------------------
  

  Basic array size parameters:
  | Number of species                 :        2
  | Number of atoms                   :        6
  | Max. basis fn. angular momentum   :        2
  | Max. atomic/ionic basis occupied n:        2
  | Max. number of basis fn. types    :        2
  | Max. radial fns per species/type  :        3
  | Max. logarithmic grid size        :     1301
  | Max. radial integration grid size :       36
  | Max. angular integration grid size:      302
  | Max. angular grid division number :        8
  | Radial grid for Hartree potential :     1301
  | Number of spin channels           :        1

  Definition of standardized fundamental physical constants in this FHI-aims run:
  | Using the set of values used in FHI-aims up to 2024, which combines values from
  | different CODATA sets - see constants.f90.
  | Use the 'codata' keyword in control.in to change this selection.

  Memory overcommitment is allowed on your operating system.

------------------------------------------------------------
          Reading file control.in.
------------------------------------------------------------
  XC: Using PBE gradient-corrected functionals.
  Scalar relativistic treatment of kinetic energy: on-site free-atom approximation to ZORA.
  Spin treatment: No spin polarisation.
  Using packed matrix format  2
  Output of real space matrices in human-readable format is requested.
  Calculating all eigenstates for the basis set (i.e. includes all empty states.)

  Reading configuration options for species H                   .
  | Found nuclear charge :   1.0000
  | Found atomic mass :    1.0079400000000001      amu
  | Found l_max for Hartree potential  :   4
  | Found cutoff potl. onset [A], width [A], scale factor :    3.50000    1.50000    1.00000
  | Threshold for basis-dependent cutoff potential is   0.100000E-03
  | Found data for basic radial integration grid :    24 points, outermost radius =    5.000 A
  | Found multiplier for basic radial grid :   1
  | Found angular grid specification: user-specified.
  | Specified grid contains     5 separate shells.
  | Check grid settings after all constraints further below.
  | Found free-atom valence shell :  1 s   1.000
  | No ionic wave fns used. Skipping ion_occ.
  | Found hydrogenic basis function :  2 s   2.100
  | Found hydrogenic basis function :  2 p   3.500
 | Encountered keyword species, ending the description of species H                   .
  Species H                   : Missing cutoff potential type.
  Defaulting to exp(1/x)/(1-x)^2 type cutoff potential.
  Species H : No 'logarithmic' tag. Using default grid for free atom:
  | Default logarithmic grid data [bohr] : 0.1000E-03 0.1000E+03 0.1012E+01
  Species H : On-site basis accuracy parameter (for Gram-Schmidt orthonormalisation) not specified.
  Using default value basis_acc =  0.1000000E-03.
  Species H                   : Using default innermost maximum threshold i_radial=  2 for radial functions.
  Species H                   : Default cutoff onset for free atom density etc. : 0.35000000E+01 AA.
  Species H                   : Basic radial grid will be enhanced according to radial_multiplier =   1, to contain    24 grid points.

  Reading configuration options for species O                   .
  | Found nuclear charge :   8.0000
  | Found atomic mass :    15.999400000000000      amu
  | Found l_max for Hartree potential  :   4
  | Found cutoff potl. onset [A], width [A], scale factor :    3.50000    1.50000    1.00000
  | Threshold for basis-dependent cutoff potential is   0.100000E-03
  | Found data for basic radial integration grid :    36 points, outermost radius =    5.000 A
  | Found multiplier for basic radial grid :   1
  | Found angular grid specification: user-specified.
  | Specified grid contains     5 separate shells.
  | Check grid settings after all constraints further below.
  | Found free-atom valence shell :  2 s   2.000
  | Found free-atom valence shell :  2 p   4.000
  | No ionic wave fns used. Skipping ion_occ.
  | No ionic wave fns used. Skipping ion_occ.
  | Found hydrogenic basis function :  2 p   1.800
  | Found hydrogenic basis function :  3 d   7.600
  | Found hydrogenic basis function :  3 s   6.400
  Species O                   : Missing cutoff potential type.
  Defaulting to exp(1/x)/(1-x)^2 type cutoff potential.
  Species O : No 'logarithmic' tag. Using default grid for free atom:
  | Default logarithmic grid data [bohr] : 0.1000E-03 0.1000E+03 0.1012E+01
  Species O : On-site basis accuracy parameter (for Gram-Schmidt orthonormalisation) not specified.
  Using default value basis_acc =  0.1000000E-03.
  Species O                   : Using default innermost maximum threshold i_radial=  2 for radial functions.
  Species O                   : Default cutoff onset for free atom density etc. : 0.35000000E+01 AA.
  Species O                   : Basic radial grid will be enhanced according to radial_multiplier =   1, to contain    36 grid points.

  Finished reading input file 'control.in'.

------------------------------------------------------------


------------------------------------------------------------
          Reading geometry description geometry.in.
------------------------------------------------------------
  | The smallest distance between any two atoms is         0.96856502 AA.
  | The first atom of this pair is atom number                      1 .
  | The second atom of this pair is atom number                     2 .
  Input structure read successfully.
  The structure contains        6 atoms,  and a total of         20.000 electrons.

  Input geometry:
  | No unit cell requested.
  | Atomic structure:
  |       Atom                x [A]            y [A]            z [A]
  |    1: Species O             0.00000000        0.00000000        0.11926200
  |    2: Species H             0.00000000        0.76323900       -0.47704700
  |    3: Species H             0.00000000       -0.76323900       -0.47704700
  |    4: Species O            15.00000000        0.00000000        0.11926200
  |    5: Species H            15.00000000        0.76323900       -0.47704700
  |    6: Species H            15.00000000       -0.76323900       -0.47704700

  Slab Identifier: This is not a periodic structure.

  Finished reading input file 'geometry.in'.



  Consistency checks for stacksize environment parameter are next.

  | Maximum stacksize for task 0: unlimited
  | Maximum stacksize for task 1: unlimited
  | Maximum stacksize for task 2: unlimited
  | Maximum stacksize for task 3: unlimited
  | Current stacksize for task 0: unlimited
  | Current stacksize for task 1: unlimited
  | Current stacksize for task 2: unlimited
  | Current stacksize for task 3: unlimited

  Consistency checks for the contents of control.in are next.

  MPI_IN_PLACE appears to work with this MPI implementation.
  | Keeping use_mpi_in_place .true. (see manual).
  Target number of points in a grid batch is not set. Defaulting to  100
  Method for grid partitioning is not set. Defaulting to parallel hash+maxmin partitioning.
  Batch size limit is not set. Defaulting to    200
  By default, will store active basis functions for each batch.
  If in need of memory, prune_basis_once .false. can be used to disable this option.
  communication_type for Hartree potential was not specified.
  Defaulting to calc_hartree .
  Defaulting to Pulay charge density mixer.
  Pulay mixer: Number of relevant iterations not set.
  Defaulting to    8 iterations.
  Pulay mixer: Number of initial linear mixing iterations not set.
  Defaulting to    0 iterations.
  Work space size for distributed Hartree potential not set.
  Defaulting to   0.200000E+03 MB.
  Mixing parameter for charge density mixing has not been set.
  Using default: charge_mix_param =     0.0500.
  The mixing parameter will be adjusted in iteration number     2 of each s.c.f. cycle (i.e., each geometry step).
  Algorithm-dependent basis array size parameters:
  | n_max_pulay                         :        8
  Maximum number of self-consistency iterations not provided.
  Presetting  1000 iterations.
  Presetting      1001 iterations before the initial mixing cycle
  is restarted anyway using the sc_init_iter criterion / keyword.
  Presetting a factor      1.000 between actual scf density residual
  and density convergence criterion sc_accuracy_rho below which sc_init_iter
  takes no effect.
 * No s.c.f. convergence criteria (sc_accuracy_*) were provided in control.in.
 * The run will proceed with a reasonable default guess, but please check whether.
 * the s.c.f. cycles seem to take too much or too little time.
  Calculation of forces was not defined in control.in. No forces will be calculated.
  Geometry relaxation not requested: no relaxation will be performed.
 * Notice: The s.c.f. convergence criterion sc_accuracy_rho was not provided.
 * We used to stop in this case, and ask the user to provide reasonable
 * scf convergence criteria. However, this led some users to employ criteria
 * that led to extremely long run times, e.g., for simple relaxation.
 * We now preset a default value for sc_accuracy_rho if it is not set.
 * You may still wish to check if this setting is too tight or too loose for your needs.
 * Based on n_atoms and forces and force-correction status, FHI-aims chose sc_accuracy_rho =  0.800000E-05 .
  No accuracy limit for integral partition fn. given. Defaulting to  0.1000E-14.
  No threshold value for u(r) in integrations given. Defaulting to  0.1000E-05.
  No occupation type (smearing scheme) given. Defaulting to Gaussian broadening, width =  0.1000E-01 eV.
  The width will be adjusted in iteration number     2 of each s.c.f. cycle (i.e., each geometry step).
  No accuracy for occupation numbers given. Defaulting to  0.1000E-12.
  No threshold value for occupation numbers given. Defaulting to  0.0000E+00.
  No accuracy for fermi level given. Defaulting to  0.1000E-19.
  Maximum # of iterations to find E_F not set. Defaulting to  200.
  Preferred method for the eigenvalue solver ('KS_method') not specified in 'control.in'.
  Calling BLACS routine to test compilation state
  Since ScaLAPACK support is enabled, defaulting to ELPA (via ELSI).
  Will not use alltoall communication since running on < 1024 CPUs.
  Threshold for basis singularities not set.
  Default threshold for basis singularities:  0.1000E-04
  partition_type (choice of integration weights) for integrals was not specified.
  | Using a version of the partition function of Stratmann and coworkers ('stratmann_sparse').
  | At each grid point, the set of atoms used to build the partition table is smoothly restricted to
  | only those atoms whose free-atom density would be non-zero at that grid point.
  Partitioning for Hartree potential was not defined. Using partition_type for integrals.
  | Adjusted default value of keyword multip_moments_threshold to:       0.10000000E-11
  | This value may affect high angular momentum components of the Hartree potential in periodic systems.
  No q(lm)/r^(l+1) cutoff set for long-range Hartree potential.
  | Using default value of  0.100000E-09 .
  | Verify using the multipole_threshold keyword.
  Defaulting to new monopole extrapolation.
  Density update method: automatic selection selected.
  Charge integration errors on the 3D integration grid will be compensated
  by explicit normalization and distribution of residual charges.
  Use the "compensate_multipole_errors" flag to change this behaviour.
  Set 'collect_eigenvectors' to be '.true.' for use_density_matrix .false.
  Found no potential conflicts with setting 'use_local_index' for this calculation.
  Flag 'use_local_index' has not been set.
  Testing whether we classify this calculation as large-scale ...
  The calculation contains less than 100 atoms. This is most likely not a large-scale calculation.
  Not setting 'use_local_index'.

  Consistency checks for the contents of geometry.in are next.

  Structure-dependent array size parameters: 
  | Maximum number of distinct radial functions  :        9
  | Maximum number of basis functions            :       48
  | Number of Kohn-Sham states (occupied + empty):       48
------------------------------------------------------------
  After read_input_data [GB]:    376.25

  Performing system and environment tests:
  | Environment variable OMP_NUM_THREADS correctly set to 1.
  | Checking for ScaLAPACK...
  | Testing pdtran()...
  | All pdtran() tests passed.
  | Testing CPU compatibility for run-time vs. build-time.
  | Reading /proc/cpuinfo for CPU information ...
  | Built for  : Intel(R) Xeon(R) Gold 6230 CPU @ 2.10GHz
  | Running on : Intel(R) Xeon(R) Gold 6230 CPU @ 2.10GHz
  | Runtime CPU compatibility verified.
  
  After prepare_system [GB]:    376.24

------------------------------------------------------------
          Preparing all fixed parts of the calculation.
------------------------------------------------------------
  Determining machine precision:
     2.2250738585072014E-308
  Setting up grids for atomic and cluster calculations.

  Creating wave function, potential, and density for free atoms.
  Runtime choices for atomic solver:
  | atomic solver xc        : PBE
  | compute density gradient: 1
  | compute kinetic density : F

  Species: H

  List of occupied orbitals and eigenvalues:
    n    l              occ      energy [Ha]    energy [eV]
    1    0           1.0000        -0.237593        -6.4652


  Species: O

  List of occupied orbitals and eigenvalues:
    n    l              occ      energy [Ha]    energy [eV]
    1    0           2.0000       -18.926989      -515.0296
    2    0           2.0000        -0.880247       -23.9527
    2    1           4.0000        -0.331514        -9.0210


  Adding cutoff potential to free-atom effective potential.
  Creating fixed part of basis set: Ionic, confined, hydrogenic.

  H                    hydrogenic:

  List of hydrogenic basis orbitals: 
    n    l      effective z      eigenvalue [eV]  inner max. [A]     outer max. [A]     outer radius [A]   
    2    0         2.100000       -14.9728           0.193243           1.317208           4.583499
    2    1         3.500000       -41.6669           0.602369           0.602369           3.723403


  O                    hydrogenic:

  List of hydrogenic basis orbitals: 
    n    l      effective z      eigenvalue [eV]  inner max. [A]     outer max. [A]     outer radius [A]   
    2    1         1.800000       -10.9749           1.164242           1.164242           4.578029
    3    2         7.600000       -87.3180           0.624125           0.624125           3.251020
    3    0         6.400000       -61.9207           0.061167           1.081902           4.001998

  Creating atomic-like basis functions for current effective potential.

  Species H                   :

  List of atomic basis orbitals and eigenvalues:
    n    l      energy [Ha]    energy [eV]    outer radius [A]
    1    0        -0.237593        -6.4652       4.527807


  Species O                   :

  List of atomic basis orbitals and eigenvalues:
    n    l      energy [Ha]    energy [eV]    outer radius [A]
    1    0       -18.926989      -515.0296       1.415765
    2    0        -0.880247       -23.9527       4.413171
    2    1        -0.331514        -9.0210       4.522403

  Assembling full basis from fixed parts.
  | Species H :   atomic orbital   1 s accepted.
  | Species H :    hydro orbital   2 s accepted.
  | Species H :    hydro orbital   2 p accepted.
  | Species O :   atomic orbital   1 s accepted.
  | Species O :    hydro orbital   3 s accepted.
  | Species O :   atomic orbital   2 s accepted.
  | Species O :   atomic orbital   2 p accepted.
  | Species O :    hydro orbital   2 p accepted.
  | Species O :    hydro orbital   3 d accepted.

  Basis size parameters after reduction:
  | Total number of radial functions:        9
  | Total number of basis functions :       48

  Per-task memory consumption for arrays in subroutine allocate_ext:
  |           2.999320MB.
  Testing on-site integration grid accuracy.
  |  Species  Function  <phi|h_atom|phi> (log., in eV)  <phi|h_atom|phi> (rad., in eV)
           1        1                 -6.4664147733                 -6.4652229287
           1        2                 13.7099062243                 13.7158503352
           1        3                 25.2661739479                 25.2663166526
           2        4               -515.0295626295               -515.0294562738
           2        5                 15.1698434419                 15.1699322204
           2        6                -21.6038822678                -21.6039118105
           2        7                 -9.0211123393                 -9.0212703513
           2        8                  8.3047696391                  8.2854840999
           2        9                 45.8428042125                 45.8427461222

  Preparing densities etc. for the partition functions (integrals / Hartree potential).

  Preparations completed.
  max(cpu_time)          :      0.122 s.
  Wall clock time (cpu1) :      0.123 s.
------------------------------------------------------------
  After prepare_scf [GB]:    376.13

  Initializing index lists of integration centers etc. from given atomic structure:
  | Number of centers in hartree potential                       :         6
  | Number of centers in hartree multipole                       :         6
  | Number of centers in electron density summation              :         6
  | Number of centers in basis integrals                         :         6
  | Number of centers in integrals                               :         6
  | Number of centers in hamiltonian                             :         6
  | Number of centers in partition table from touching 0-cell    :         6
  | Number of centers in partition table total                   :         6
  After initialize_bc_dependent_lists [GB]:    376.13

------------------------------------------------------------
          Begin self-consistency loop: Initialization.

          Date     :  20260417, Time     :  150719.366
------------------------------------------------------------
  Available memory per node after initialize_hartree_non_periodic_ewald [GB]:    376.13
  Available memory per node after initialize_recip_hartree_potential [GB]:    376.13
  * Using 4 tasks for Scalapack Eigenvalue solver.
  Detailed listing of tasks and assigned k-points:
  (for non-periodic systems, the "k-point" denotes an internal label only)
   Task     0 k-point     1 on hetmathsys2.scrtp.warwick.ac.uk
   Task     1 k-point     1 on hetmathsys2.scrtp.warwick.ac.uk
   Task     2 k-point     1 on hetmathsys2.scrtp.warwick.ac.uk
   Task     3 k-point     1 on hetmathsys2.scrtp.warwick.ac.uk
  Tasks:     4 split into      2 X      2 BLACS grid
  Calculating block size based on n_basis =           48  max_nprow =            2  max_npcol =            2
  ScaLAPACK block size set to:           16
  Allocating        0.008 MB for ovlp
  Allocating        0.008 MB for ham
  Allocating        0.008 MB for eigenvec
  Required Scalapack workspace - INTEGER:            1  REAL:             1
  Available memory per node after initialize_scalapack [GB]:    376.13
  Available memory per node after aims_elsi_init_scf [GB]:    376.13
  Available memory per node after initialize_fixed_grids [GB]:    376.13
  Partitioning the integration grid into batches with parallel hashing+maxmin method.
  | Number of batches:      548
  | Maximal batch size:     103
  | Minimal batch size:      49
  | Average batch size:      58.117
  | Standard deviation of batch sizes:       9.918

  Integration load balanced across     4 MPI tasks.
  Work distribution over tasks is as follows:
  Task     0 has       7988 integration points.
  Task     1 has       7965 integration points.
  Task     2 has       7965 integration points.
  Task     3 has       7930 integration points.
  Available memory per node after partition_grid [GB]:    376.13
  Initializing partition tables, free-atom densities, potentials, etc. across the integration grid (initialize_grid_storage).
  | initialize_grid_storage: Actual outermost partition radius vs. multipole_radius_free
  | (-- VB: in principle, multipole_radius_free should be larger, hence this output)
  | Species        1: Confinement radius =              4.999999999999999 AA, multipole_radius_free =              5.054417573612229 AA.
  | Species        1: outer_partition_radius set to              5.054417573612229 AA .
  | Species        2: Confinement radius =              4.999999999999999 AA, multipole_radius_free =              5.048384829883283 AA.
  | Species        2: outer_partition_radius set to              5.048384829883283 AA .
  | The sparse table of interatomic distances needs          0.17 kbyte instead of         0.29 kbyte of memory.
  | Net number of integration points:    31848
  | of which are non-zero points    :    29072
  Available memory per node after initialize_grid_storage_p1 [GB]:    376.13
  Renormalizing the initial density to the exact electron count on the 3D integration grid.
  | Initial density: Formal number of electrons (from input files) :      20.0000000000
  | Integrated number of electrons on 3D grid     :      19.9998863099
  | Charge integration error                      :      -0.0001136901
  | Normalization factor for density and gradient :       1.0000056845
  Renormalizing the free-atom superposition density to the exact electron count on the 3D integration grid.
  | Formal number of electrons (from input files) :      20.0000000000
  | Integrated number of electrons on 3D grid     :      19.9998863099
  | Charge integration error                      :      -0.0001136901
  | Normalization factor for density and gradient :       1.0000056845
  Obtaining max. number of non-zero basis functions in each batch (get_n_compute_maxes).
  | Maximal number of non-zero basis functions:       24 in task     0
  | Maximal number of non-zero basis functions:       24 in task     1
  | Maximal number of non-zero basis functions:       24 in task     2
  | Maximal number of non-zero basis functions:       24 in task     3
  Selecting the method for density update.
  Loop over occupied states selected for charge density update.
  Available memory per node after get_n_compute_maxes_p1 [GB]:    376.13
  Hamiltonian matrix size:
  | Size of matrix non-packed:                 1176
  | Size of matrix packed:             601
  Allocating        0.018 MB for KS_eigenvector
  Available memory per node after allocate_matrices [GB]:    376.13
  Available memory per node after init_comm_sparse_local_matrix_scalapack [GB]:    376.13
  Integrating Hamiltonian matrix: batch-based integration.
  Time summed over all CPUs for integration: real work        0.181 s, elapsed        0.183 s
  Available memory per node after integrate hamiltonian matrix [GB]:    376.13
  Integrating overlap matrix.
  Time summed over all CPUs for integration: real work        0.068 s, elapsed        0.069 s
  Available memory per node after integrate ovlp matrix [GB]:    376.13
  Not deallocating overlap matrix.
  Available memory per node after save_overlap_scalapack [GB]:    376.13

  Updating Kohn-Sham eigenvalues and eigenvectors using ELSI and the ELPA eigensolver.
  Overlap matrix is not singular
  | Lowest and highest eigenvalues :  0.1639E-01,  0.2709E+01
  Finished singularity check of overlap matrix
  | Time :     0.000 s
  Starting ELPA eigensolver
  Finished Cholesky decomposition
  | Time :     0.000 s
  Finished transformation to standard eigenproblem
  | Time :     0.001 s
  Finished solving standard eigenproblem
  | Time :     0.001 s
  Finished back-transformation of eigenvectors
  | Time :     0.000 s

  Obtaining occupation numbers and electronic chemical potential using ELSI.
  | Note that, for insulating systems, the printed 'chemical potential' value is not uniquely defined.
  | It can be anywhere in the energy gap, as long as it correctly separates occupied and unoccupied states.
  | In systems with a gap, the physically relevant chemical potential is the VBM or HOMO.

  | Chemical potential (Fermi level):    -6.60020384 eV
  Available memory per node after advance_KS_solution [GB]:    376.13
  Writing Kohn-Sham eigenvalues.

  State    Occupation    Eigenvalue [Ha]    Eigenvalue [eV]
      1       2.00000         -19.032811         -517.90915
      2       2.00000         -19.032811         -517.90915
      3       2.00000          -1.096687          -29.84238
      4       2.00000          -1.096687          -29.84238
      5       2.00000          -0.625757          -17.02772
      6       2.00000          -0.625757          -17.02772
      7       2.00000          -0.509068          -13.85246
      8       2.00000          -0.509068          -13.85246
      9       2.00000          -0.435914          -11.86183
     10       2.00000          -0.435914          -11.86183
     11       0.00000          -0.049192           -1.33858
     12       0.00000          -0.049192           -1.33858
     13       0.00000           0.033225            0.90409
     14       0.00000           0.033225            0.90409
     15       0.00000           0.215393            5.86114
     16       0.00000           0.215393            5.86114
     17       0.00000           0.249072            6.77760
     18       0.00000           0.249072            6.77760
     19       0.00000           0.301761            8.21135
     20       0.00000           0.301761            8.21135
     21       0.00000           0.508037           13.82440
     22       0.00000           0.508037           13.82440
     23       0.00000           0.697300           18.97449
     24       0.00000           0.697300           18.97449
     25       0.00000           0.795277           21.64058
     26       0.00000           0.795277           21.64058
     27       0.00000           0.879680           23.93731
     28       0.00000           0.879680           23.93731
     29       0.00000           1.023207           27.84289
     30       0.00000           1.023207           27.84289
     31       0.00000           1.034150           28.14066
     32       0.00000           1.034150           28.14066
     33       0.00000           1.457008           39.64721
     34       0.00000           1.457008           39.64721
     35       0.00000           1.825234           49.66714
     36       0.00000           1.825234           49.66714
     37       0.00000           1.931586           52.56112
     38       0.00000           1.931586           52.56112
     39       0.00000           2.149293           58.48523
     40       0.00000           2.149293           58.48523
     41       0.00000           2.253564           61.32259
     42       0.00000           2.253564           61.32259
     43       0.00000           2.274262           61.88582
     44       0.00000           2.274262           61.88582
     45       0.00000           2.765245           75.24616
     46       0.00000           2.765245           75.24616
     47       0.00000           3.077977           83.75601
     48       0.00000           3.077977           83.75601

  Highest occupied state (VBM) at    -11.86182706 eV
  | Occupation number:      2.00000000

  Lowest unoccupied state (CBM) at    -1.33858062 eV
  | Occupation number:      0.00000000

  Overall HOMO-LUMO gap:     10.52324644 eV.
  Calculating total energy contributions from superposition of free atom densities.

  Total energy components:
  | Sum of eigenvalues            :         -86.80095358 Ha       -2361.97412275 eV
  | XC energy correction          :         -18.04855257 Ha        -491.12610371 eV
  | XC potential correction       :          23.20601868 Ha         631.46789705 eV
  | Free-atom electrostatic energy:         -71.44254799 Ha       -1944.05064310 eV
  | Hartree energy correction     :          -0.00000000 Ha          -0.00000000 eV
  | Entropy correction            :          -0.00000000 Ha          -0.00000000 eV
  | ---------------------------
  | Total energy                  :        -153.08603546 Ha       -4165.68297252 eV
  | Total energy, T -> 0          :        -153.08603546 Ha       -4165.68297252 eV  <-- do not rely on this value for anything but (periodic) metals
  | Electronic free energy        :        -153.08603546 Ha       -4165.68297252 eV

  Derived energy quantities:
  | Kinetic energy                :         151.44742930 Ha        4121.09423033 eV
  | Electrostatic energy          :        -286.48491219 Ha       -7795.65109913 eV
  | Energy correction for multipole
  | error in Hartree potential    :           0.00000000 Ha           0.00000000 eV
  | Sum of eigenvalues per atom                           :        -393.66235379 eV
  | Total energy (T->0) per atom                          :        -694.28049542 eV  <-- do not rely on this value for anything but (periodic) metals
  | Electronic free energy per atom                       :        -694.28049542 eV
  Initialize hartree_potential_storage
  Max. number of atoms included in rho_multipole:            6

  End scf initialization - timings             :  max(cpu_time)    wall_clock(cpu1)
  | Time for scf. initialization                :        0.141 s           0.141 s
  | Boundary condition initialization           :        0.001 s           0.001 s
  | Integration                                 :        0.063 s           0.063 s
  | Solution of K.-S. eqns.                     :        0.003 s           0.003 s
  | Grid partitioning                           :        0.041 s           0.041 s
  | Preloading free-atom quantities on grid     :        0.019 s           0.019 s
  | Free-atom superposition energy              :        0.014 s           0.014 s
  | Total energy evaluation                     :        0.000 s           0.000 s

  Partial memory accounting:
  | Current value for overall tracked memory usage:
  |   Minimum:        0.035 MB (on task 3)
  |   Maximum:        0.053 MB (on task 0)
  |   Average:        0.043 MB
  | Peak value for overall tracked memory usage:
  |   Minimum:        0.103 MB (on task 1 after allocating wave)
  |   Maximum:        0.515 MB (on task 0 after allocating wave)
  |   Average:        0.305 MB
  | Largest tracked array allocation so far:
  |   Minimum:        0.037 MB (all_coords on task 1)
  |   Maximum:        0.328 MB (all_coords on task 0)
  |   Average:        0.182 MB
  Note:  These values currently only include a subset of arrays which are explicitly tracked.
  The "true" memory usage will be greater.
------------------------------------------------------------
  Available memory after initialize_scf [GB]:    376.13
  Available memory after allocating mixing [GB]:    376.13
  Evaluating new KS density.
  Integration grid: deviation in total charge (<rho> - N_e) =   2.131628E-14

  Time for density update prior                :  max(cpu_time)    wall_clock(cpu1)
  | self-consistency iterative process          :        0.035 s           0.034 s
  Available memory before start of SCF loop [GB]:    376.13

------------------------------------------------------------
          Begin self-consistency iteration #    1

  Date     :  20260417, Time     :  150719.542
------------------------------------------------------------
  Pulay mixing of updated and previous charge densities.
  Available memory per node after mixing [GB]:    376.13
  Renormalizing the density to the exact electron count on the 3D integration grid.
  | Formal number of electrons (from input files) :      20.0000000000
  | Integrated number of electrons on 3D grid     :      20.0000000000
  | Charge integration error                      :      -0.0000000000
  | Normalization factor for density and gradient :       1.0000000000

  Evaluating partitioned Hartree potential by multipole expansion.
  | Original multipole sum: apparent total charge =  -0.874265E-13
  | Sum of charges compensated after spline to logarithmic grids =   0.243962E-04
  | Analytical far-field extrapolation by fixed multipoles:
  | Hartree multipole sum: apparent total charge =  -0.875464E-13
  Summing up the Hartree potential.
  Time summed over all CPUs for potential: real work        0.039 s, elapsed        0.039 s
  | RMS charge density error from multipole expansion :   0.499497E-03

  Integrating Hamiltonian matrix: batch-based integration.
  Time summed over all CPUs for integration: real work        0.180 s, elapsed        0.181 s

  Updating Kohn-Sham eigenvalues and eigenvectors using ELSI and the ELPA eigensolver.
  Starting ELPA eigensolver
  Finished transformation to standard eigenproblem
  | Time :     0.000 s
  Finished solving standard eigenproblem
  | Time :     0.001 s
  Finished back-transformation of eigenvectors
  | Time :     0.000 s

  Obtaining occupation numbers and electronic chemical potential using ELSI.
  | Note that, for insulating systems, the printed 'chemical potential' value is not uniquely defined.
  | It can be anywhere in the energy gap, as long as it correctly separates occupied and unoccupied states.
  | In systems with a gap, the physically relevant chemical potential is the VBM or HOMO.

  | Chemical potential (Fermi level):    -6.26091003 eV
  Writing Kohn-Sham eigenvalues.

  State    Occupation    Eigenvalue [Ha]    Eigenvalue [eV]
      1       2.00000         -18.993764         -516.84663
      2       2.00000         -18.993764         -516.84663
      3       2.00000          -1.077609          -29.32322
      4       2.00000          -1.077609          -29.32322
      5       2.00000          -0.609304          -16.58000
      6       2.00000          -0.609304          -16.58000
      7       2.00000          -0.489536          -13.32096
      8       2.00000          -0.489536          -13.32096
      9       2.00000          -0.415570          -11.30822
     10       2.00000          -0.415570          -11.30822
     11       0.00000          -0.044599           -1.21360
     12       0.00000          -0.044599           -1.21360
     13       0.00000           0.039618            1.07805
     14       0.00000           0.039618            1.07805
     15       0.00000           0.223825            6.09060
     16       0.00000           0.223825            6.09060
     17       0.00000           0.257920            7.01837
     18       0.00000           0.257920            7.01837
     19       0.00000           0.307776            8.37501
     20       0.00000           0.307776            8.37501
     21       0.00000           0.513656           13.97729
     22       0.00000           0.513656           13.97729
     23       0.00000           0.704666           19.17494
     24       0.00000           0.704666           19.17494
     25       0.00000           0.803440           21.86271
     26       0.00000           0.803440           21.86271
     27       0.00000           0.887039           24.13755
     28       0.00000           0.887039           24.13755
     29       0.00000           1.031634           28.07220
     30       0.00000           1.031634           28.07220
     31       0.00000           1.046108           28.46606
     32       0.00000           1.046108           28.46606
     33       0.00000           1.461549           39.77076
     34       0.00000           1.461549           39.77076
     35       0.00000           1.837042           49.98846
     36       0.00000           1.837042           49.98846
     37       0.00000           1.941871           52.84099
     38       0.00000           1.941871           52.84099
     39       0.00000           2.163761           58.87894
     40       0.00000           2.163761           58.87894
     41       0.00000           2.268694           61.73429
     42       0.00000           2.268694           61.73429
     43       0.00000           2.289208           62.29252
     44       0.00000           2.289208           62.29252
     45       0.00000           2.780007           75.64784
     46       0.00000           2.780007           75.64784
     47       0.00000           3.093935           84.19025
     48       0.00000           3.093935           84.19025

  Highest occupied state (VBM) at    -11.30822352 eV
  | Occupation number:      2.00000000

  Lowest unoccupied state (CBM) at    -1.21359654 eV
  | Occupation number:      0.00000000

  Overall HOMO-LUMO gap:     10.09462698 eV.

  Total energy components:
  | Sum of eigenvalues            :         -86.34313018 Ha       -2349.51611428 eV
  | XC energy correction          :         -18.09979987 Ha        -492.52061353 eV
  | XC potential correction       :          23.27316998 Ha         633.29517674 eV
  | Free-atom electrostatic energy:         -71.44254799 Ha       -1944.05064310 eV
  | Hartree energy correction     :          -0.43929638 Ha         -11.95386260 eV
  | Entropy correction            :          -0.00000000 Ha          -0.00000000 eV
  | ---------------------------
  | Total energy                  :        -153.05160444 Ha       -4164.74605677 eV
  | Total energy, T -> 0          :        -153.05160444 Ha       -4164.74605677 eV  <-- do not rely on this value for anything but (periodic) metals
  | Electronic free energy        :        -153.05160444 Ha       -4164.74605677 eV

  Derived energy quantities:
  | Kinetic energy                :         151.75887480 Ha        4129.56909348 eV
  | Electrostatic energy          :        -286.71067937 Ha       -7801.79453671 eV
  | Energy correction for multipole
  | error in Hartree potential    :           0.00021448 Ha           0.00583634 eV
  | Sum of eigenvalues per atom                           :        -391.58601905 eV
  | Total energy (T->0) per atom                          :        -694.12434279 eV  <-- do not rely on this value for anything but (periodic) metals
  | Electronic free energy per atom                       :        -694.12434279 eV
  Evaluating new KS density.
  Integration grid: deviation in total charge (<rho> - N_e) =   2.131628E-14

  Self-consistency convergence accuracy:
  | Change of charge density      :  0.4342E+00
  | Change of unmixed KS density  :  0.1291E+02
  | Change of sum of eigenvalues  :  0.1246E+02 eV
  | Change of total energy        :  0.9369E+00 eV


------------------------------------------------------------
  End self-consistency iteration #     1       :  max(cpu_time)    wall_clock(cpu1)
  | Time for this iteration                     :        0.125 s           0.126 s
  | Charge density update                       :        0.034 s           0.034 s
  | Density mixing                              :        0.001 s           0.002 s
  | Hartree multipole update                    :        0.003 s           0.003 s
  | Hartree multipole summation                 :        0.039 s           0.039 s
  | Integration                                 :        0.045 s           0.046 s
  | Solution of K.-S. eqns.                     :        0.002 s           0.001 s
  | Total energy evaluation                     :        0.000 s           0.000 s

  Partial memory accounting:
  | Current value for overall tracked memory usage:
  |   Minimum:        4.458 MB (on task 3)
  |   Maximum:        4.514 MB (on task 0)
  |   Average:        4.486 MB
  | Peak value for overall tracked memory usage:
  |   Minimum:        4.534 MB (on task 3 after allocating gradient_basis_wave)
  |   Maximum:        4.590 MB (on task 0 after allocating gradient_basis_wave)
  |   Average:        4.561 MB
  | Largest tracked array allocation so far:
  |   Minimum:        1.452 MB (previous_rho_gradient_diff on task 3)
  |   Maximum:        1.463 MB (previous_rho_gradient_diff on task 0)
  |   Average:        1.458 MB
  Note:  These values currently only include a subset of arrays which are explicitly tracked.
  The "true" memory usage will be greater.
------------------------------------------------------------

------------------------------------------------------------
          Begin self-consistency iteration #    2

  Date     :  20260417, Time     :  150719.668
------------------------------------------------------------
  Pulay mixing of updated and previous charge densities.
  Available memory per node after mixing [GB]:    376.12
  Renormalizing the density to the exact electron count on the 3D integration grid.
  | Formal number of electrons (from input files) :      20.0000000000
  | Integrated number of electrons on 3D grid     :      20.0000000000
  | Charge integration error                      :       0.0000000000
  | Normalization factor for density and gradient :       1.0000000000

  Evaluating partitioned Hartree potential by multipole expansion.
  | Original multipole sum: apparent total charge =  -0.361095E-13
  | Sum of charges compensated after spline to logarithmic grids =   0.173769E-03
  | Analytical far-field extrapolation by fixed multipoles:
  | Hartree multipole sum: apparent total charge =  -0.367736E-13
  Summing up the Hartree potential.
  Time summed over all CPUs for potential: real work        0.039 s, elapsed        0.039 s
  | RMS charge density error from multipole expansion :   0.352695E-02

  Integrating Hamiltonian matrix: batch-based integration.
  Time summed over all CPUs for integration: real work        0.180 s, elapsed        0.181 s

  Updating Kohn-Sham eigenvalues and eigenvectors using ELSI and the ELPA eigensolver.
  Starting ELPA eigensolver
  Finished transformation to standard eigenproblem
  | Time :     0.001 s
  Finished solving standard eigenproblem
  | Time :     0.000 s
  Finished back-transformation of eigenvectors
  | Time :     0.000 s

  Obtaining occupation numbers and electronic chemical potential using ELSI.
  | Note that, for insulating systems, the printed 'chemical potential' value is not uniquely defined.
  | It can be anywhere in the energy gap, as long as it correctly separates occupied and unoccupied states.
  | In systems with a gap, the physically relevant chemical potential is the VBM or HOMO.

  | Chemical potential (Fermi level):    -4.31172861 eV
  Highest occupied state (VBM) at     -8.17615865 eV
  | Occupation number:      2.00000000

  Lowest unoccupied state (CBM) at    -0.44729857 eV
  | Occupation number:      0.00000000

  Overall HOMO-LUMO gap:      7.72886008 eV.

  Checking to see if s.c.f. parameters should be adjusted.
  The system likely has a gap. Increased the default Pulay mixing parameter (charge_mix_param). Value:   0.200000 .
  Kept the default occupation width. Value:   0.010000 eV.

  Total energy components:
  | Sum of eigenvalues            :         -83.73909400 Ha       -2278.65668458 eV
  | XC energy correction          :         -18.40554104 Ha        -500.84025416 eV
  | XC potential correction       :          23.67380283 Ha         644.19695148 eV
  | Free-atom electrostatic energy:         -71.44254799 Ha       -1944.05064310 eV
  | Hartree energy correction     :          -3.03385371 Ha         -82.55535975 eV
  | Entropy correction            :          -0.00000000 Ha          -0.00000000 eV
  | ---------------------------
  | Total energy                  :        -152.94723391 Ha       -4161.90599011 eV
  | Total energy, T -> 0          :        -152.94723391 Ha       -4161.90599011 eV  <-- do not rely on this value for anything but (periodic) metals
  | Electronic free energy        :        -152.94723391 Ha       -4161.90599011 eV

  Derived energy quantities:
  | Kinetic energy                :         153.37799797 Ha        4173.62767672 eV
  | Electrostatic energy          :        -287.91969084 Ha       -7834.69341267 eV
  | Energy correction for multipole
  | error in Hartree potential    :           0.00103636 Ha           0.02820070 eV
  | Sum of eigenvalues per atom                           :        -379.77611410 eV
  | Total energy (T->0) per atom                          :        -693.65099835 eV  <-- do not rely on this value for anything but (periodic) metals
  | Electronic free energy per atom                       :        -693.65099835 eV
  Evaluating new KS density.
  Integration grid: deviation in total charge (<rho> - N_e) =  -3.552714E-15

  Self-consistency convergence accuracy:
  | Change of charge density      :  0.3810E+00
  | Change of unmixed KS density  :  0.4072E-01
  | Change of sum of eigenvalues  :  0.7086E+02 eV
  | Change of total energy        :  0.2840E+01 eV


------------------------------------------------------------
  End self-consistency iteration #     2       :  max(cpu_time)    wall_clock(cpu1)
  | Time for this iteration                     :        0.126 s           0.126 s
  | Charge density update                       :        0.034 s           0.034 s
  | Density mixing                              :        0.002 s           0.002 s
  | Hartree multipole update                    :        0.003 s           0.003 s
  | Hartree multipole summation                 :        0.039 s           0.040 s
  | Integration                                 :        0.045 s           0.045 s
  | Solution of K.-S. eqns.                     :        0.002 s           0.002 s
  | Total energy evaluation                     :        0.000 s           0.000 s

  Partial memory accounting:
  | Current value for overall tracked memory usage:
  |   Minimum:        4.459 MB (on task 3)
  |   Maximum:        4.515 MB (on task 0)
  |   Average:        4.487 MB
  | Peak value for overall tracked memory usage:
  |   Minimum:        4.535 MB (on task 3 after allocating gradient_basis_wave)
  |   Maximum:        4.591 MB (on task 0 after allocating gradient_basis_wave)
  |   Average:        4.562 MB
  | Largest tracked array allocation so far:
  |   Minimum:        1.452 MB (previous_rho_gradient_diff on task 3)
  |   Maximum:        1.463 MB (previous_rho_gradient_diff on task 0)
  |   Average:        1.458 MB
  Note:  These values currently only include a subset of arrays which are explicitly tracked.
  The "true" memory usage will be greater.
------------------------------------------------------------

------------------------------------------------------------
          Begin self-consistency iteration #    3

  Date     :  20260417, Time     :  150719.794
------------------------------------------------------------
  Pulay mixing of updated and previous charge densities.
  Available memory per node after mixing [GB]:    376.12
  Renormalizing the density to the exact electron count on the 3D integration grid.
  | Formal number of electrons (from input files) :      20.0000000000
  | Integrated number of electrons on 3D grid     :      20.0000000000
  | Charge integration error                      :       0.0000000000
  | Normalization factor for density and gradient :       1.0000000000

  Evaluating partitioned Hartree potential by multipole expansion.
  | Original multipole sum: apparent total charge =  -0.863135E-13
  | Sum of charges compensated after spline to logarithmic grids =   0.121725E-03
  | Analytical far-field extrapolation by fixed multipoles:
  | Hartree multipole sum: apparent total charge =  -0.867193E-13
  Summing up the Hartree potential.
  Time summed over all CPUs for potential: real work        0.039 s, elapsed        0.039 s
  | RMS charge density error from multipole expansion :   0.528718E-02

  Integrating Hamiltonian matrix: batch-based integration.
  Time summed over all CPUs for integration: real work        0.180 s, elapsed        0.181 s

  Updating Kohn-Sham eigenvalues and eigenvectors using ELSI and the ELPA eigensolver.
  Starting ELPA eigensolver
  Finished transformation to standard eigenproblem
  | Time :     0.000 s
  Finished solving standard eigenproblem
  | Time :     0.001 s
  Finished back-transformation of eigenvectors
  | Time :     0.000 s

  Obtaining occupation numbers and electronic chemical potential using ELSI.
  | Note that, for insulating systems, the printed 'chemical potential' value is not uniquely defined.
  | It can be anywhere in the energy gap, as long as it correctly separates occupied and unoccupied states.
  | In systems with a gap, the physically relevant chemical potential is the VBM or HOMO.

  | Chemical potential (Fermi level):    -5.07413839 eV
  Highest occupied state (VBM) at     -9.47833204 eV
  | Occupation number:      2.00000000

  Lowest unoccupied state (CBM) at    -0.66994474 eV
  | Occupation number:      0.00000000

  Overall HOMO-LUMO gap:      8.80838729 eV.

  Total energy components:
  | Sum of eigenvalues            :         -85.03596436 Ha       -2313.94632250 eV
  | XC energy correction          :         -18.24887954 Ha        -496.57727777 eV
  | XC potential correction       :          23.46763802 Ha         638.58692135 eV
  | Free-atom electrostatic energy:         -71.44254799 Ha       -1944.05064310 eV
  | Hartree energy correction     :          -1.71806163 Ha         -46.75083561 eV
  | Entropy correction            :          -0.00000000 Ha          -0.00000000 eV
  | ---------------------------
  | Total energy                  :        -152.97781550 Ha       -4162.73815763 eV
  | Total energy, T -> 0          :        -152.97781550 Ha       -4162.73815763 eV  <-- do not rely on this value for anything but (periodic) metals
  | Electronic free energy        :        -152.97781550 Ha       -4162.73815763 eV

  Derived energy quantities:
  | Kinetic energy                :         151.95150870 Ha        4134.81092859 eV
  | Electrostatic energy          :        -286.68044467 Ha       -7800.97180844 eV
  | Energy correction for multipole
  | error in Hartree potential    :          -0.00340712 Ha          -0.09271239 eV
  | Sum of eigenvalues per atom                           :        -385.65772042 eV
  | Total energy (T->0) per atom                          :        -693.78969294 eV  <-- do not rely on this value for anything but (periodic) metals
  | Electronic free energy per atom                       :        -693.78969294 eV
  Evaluating new KS density.
  Integration grid: deviation in total charge (<rho> - N_e) =   7.105427E-15

  Self-consistency convergence accuracy:
  | Change of charge density      :  0.1689E+00
  | Change of unmixed KS density  :  0.2511E+00
  | Change of sum of eigenvalues  : -0.3529E+02 eV
  | Change of total energy        : -0.8322E+00 eV


------------------------------------------------------------
  End self-consistency iteration #     3       :  max(cpu_time)    wall_clock(cpu1)
  | Time for this iteration                     :        0.127 s           0.127 s
  | Charge density update                       :        0.034 s           0.034 s
  | Density mixing                              :        0.003 s           0.004 s
  | Hartree multipole update                    :        0.003 s           0.003 s
  | Hartree multipole summation                 :        0.039 s           0.039 s
  | Integration                                 :        0.045 s           0.045 s
  | Solution of K.-S. eqns.                     :        0.002 s           0.002 s
  | Total energy evaluation                     :        0.000 s           0.000 s

  Partial memory accounting:
  | Current value for overall tracked memory usage:
  |   Minimum:        4.460 MB (on task 3)
  |   Maximum:        4.515 MB (on task 0)
  |   Average:        4.487 MB
  | Peak value for overall tracked memory usage:
  |   Minimum:        4.535 MB (on task 3 after allocating gradient_basis_wave)
  |   Maximum:        4.591 MB (on task 0 after allocating gradient_basis_wave)
  |   Average:        4.563 MB
  | Largest tracked array allocation so far:
  |   Minimum:        1.452 MB (previous_rho_gradient_diff on task 3)
  |   Maximum:        1.463 MB (previous_rho_gradient_diff on task 0)
  |   Average:        1.458 MB
  Note:  These values currently only include a subset of arrays which are explicitly tracked.
  The "true" memory usage will be greater.
------------------------------------------------------------

------------------------------------------------------------
          Begin self-consistency iteration #    4

  Date     :  20260417, Time     :  150719.922
------------------------------------------------------------
  Pulay mixing of updated and previous charge densities.
  Available memory per node after mixing [GB]:    376.12
  Renormalizing the density to the exact electron count on the 3D integration grid.
  | Formal number of electrons (from input files) :      20.0000000000
  | Integrated number of electrons on 3D grid     :      20.0000000000
  | Charge integration error                      :       0.0000000000
  | Normalization factor for density and gradient :       1.0000000000

  Evaluating partitioned Hartree potential by multipole expansion.
  | Original multipole sum: apparent total charge =  -0.911838E-13
  | Sum of charges compensated after spline to logarithmic grids =   0.234289E-03
  | Analytical far-field extrapolation by fixed multipoles:
  | Hartree multipole sum: apparent total charge =  -0.907165E-13
  Summing up the Hartree potential.
  Time summed over all CPUs for potential: real work        0.039 s, elapsed        0.039 s
  | RMS charge density error from multipole expansion :   0.865764E-02

  Integrating Hamiltonian matrix: batch-based integration.
  Time summed over all CPUs for integration: real work        0.180 s, elapsed        0.181 s

  Updating Kohn-Sham eigenvalues and eigenvectors using ELSI and the ELPA eigensolver.
  Starting ELPA eigensolver
  Finished transformation to standard eigenproblem
  | Time :     0.000 s
  Finished solving standard eigenproblem
  | Time :     0.001 s
  Finished back-transformation of eigenvectors
  | Time :     0.000 s

  Obtaining occupation numbers and electronic chemical potential using ELSI.
  | Note that, for insulating systems, the printed 'chemical potential' value is not uniquely defined.
  | It can be anywhere in the energy gap, as long as it correctly separates occupied and unoccupied states.
  | In systems with a gap, the physically relevant chemical potential is the VBM or HOMO.

  | Chemical potential (Fermi level):    -3.83860162 eV
  Highest occupied state (VBM) at     -7.58018266 eV
  | Occupation number:      2.00000000

  Lowest unoccupied state (CBM) at    -0.09702058 eV
  | Occupation number:      0.00000000

  Overall HOMO-LUMO gap:      7.48316208 eV.

  Total energy components:
  | Sum of eigenvalues            :         -83.56518949 Ha       -2273.92450212 eV
  | XC energy correction          :         -18.43499425 Ha        -501.64171676 eV
  | XC potential correction       :          23.71126805 Ha         645.21643192 eV
  | Free-atom electrostatic energy:         -71.44254799 Ha       -1944.05064310 eV
  | Hartree energy correction     :          -3.20849375 Ha         -87.30755701 eV
  | Entropy correction            :          -0.00000000 Ha          -0.00000000 eV
  | ---------------------------
  | Total energy                  :        -152.93995743 Ha       -4161.70798706 eV
  | Total energy, T -> 0          :        -152.93995743 Ha       -4161.70798706 eV  <-- do not rely on this value for anything but (periodic) metals
  | Electronic free energy        :        -152.93995743 Ha       -4161.70798706 eV

  Derived energy quantities:
  | Kinetic energy                :         152.46374743 Ha        4148.74965373 eV
  | Electrostatic energy          :        -286.96871062 Ha       -7808.81592403 eV
  | Energy correction for multipole
  | error in Hartree potential    :          -0.00546105 Ha          -0.14860284 eV
  | Sum of eigenvalues per atom                           :        -378.98741702 eV
  | Total energy (T->0) per atom                          :        -693.61799784 eV  <-- do not rely on this value for anything but (periodic) metals
  | Electronic free energy per atom                       :        -693.61799784 eV
  Evaluating new KS density.
  Integration grid: deviation in total charge (<rho> - N_e) =  -1.776357E-14

  Self-consistency convergence accuracy:
  | Change of charge density      :  0.2292E+00
  | Change of unmixed KS density  :  0.1515E+00
  | Change of sum of eigenvalues  :  0.4002E+02 eV
  | Change of total energy        :  0.1030E+01 eV


------------------------------------------------------------
  End self-consistency iteration #     4       :  max(cpu_time)    wall_clock(cpu1)
  | Time for this iteration                     :        0.128 s           0.128 s
  | Charge density update                       :        0.034 s           0.034 s
  | Density mixing                              :        0.004 s           0.004 s
  | Hartree multipole update                    :        0.003 s           0.003 s
  | Hartree multipole summation                 :        0.039 s           0.039 s
  | Integration                                 :        0.045 s           0.046 s
  | Solution of K.-S. eqns.                     :        0.002 s           0.001 s
  | Total energy evaluation                     :        0.000 s           0.001 s

  Partial memory accounting:
  | Current value for overall tracked memory usage:
  |   Minimum:        4.460 MB (on task 3)
  |   Maximum:        4.516 MB (on task 0)
  |   Average:        4.488 MB
  | Peak value for overall tracked memory usage:
  |   Minimum:        4.535 MB (on task 3 after allocating gradient_basis_wave)
  |   Maximum:        4.591 MB (on task 0 after allocating gradient_basis_wave)
  |   Average:        4.563 MB
  | Largest tracked array allocation so far:
  |   Minimum:        1.452 MB (previous_rho_gradient_diff on task 3)
  |   Maximum:        1.463 MB (previous_rho_gradient_diff on task 0)
  |   Average:        1.458 MB
  Note:  These values currently only include a subset of arrays which are explicitly tracked.
  The "true" memory usage will be greater.
------------------------------------------------------------

------------------------------------------------------------
          Begin self-consistency iteration #    5

  Date     :  20260417, Time     :  150720.050
------------------------------------------------------------
  Pulay mixing of updated and previous charge densities.
  Available memory per node after mixing [GB]:    376.12
  Renormalizing the density to the exact electron count on the 3D integration grid.
  | Formal number of electrons (from input files) :      20.0000000000
  | Integrated number of electrons on 3D grid     :      20.0000000000
  | Charge integration error                      :       0.0000000000
  | Normalization factor for density and gradient :       1.0000000000

  Evaluating partitioned Hartree potential by multipole expansion.
  | Original multipole sum: apparent total charge =  -0.165543E-13
  | Sum of charges compensated after spline to logarithmic grids =   0.240641E-03
  | Analytical far-field extrapolation by fixed multipoles:
  | Hartree multipole sum: apparent total charge =  -0.142667E-13
  Summing up the Hartree potential.
  Time summed over all CPUs for potential: real work        0.039 s, elapsed        0.039 s
  | RMS charge density error from multipole expansion :   0.868049E-02

  Integrating Hamiltonian matrix: batch-based integration.
  Time summed over all CPUs for integration: real work        0.183 s, elapsed        0.184 s

  Updating Kohn-Sham eigenvalues and eigenvectors using ELSI and the ELPA eigensolver.
  Starting ELPA eigensolver
  Finished transformation to standard eigenproblem
  | Time :     0.000 s
  Finished solving standard eigenproblem
  | Time :     0.002 s
  Finished back-transformation of eigenvectors
  | Time :     0.000 s

  Obtaining occupation numbers and electronic chemical potential using ELSI.
  | Note that, for insulating systems, the printed 'chemical potential' value is not uniquely defined.
  | It can be anywhere in the energy gap, as long as it correctly separates occupied and unoccupied states.
  | In systems with a gap, the physically relevant chemical potential is the VBM or HOMO.

  | Chemical potential (Fermi level):    -3.81441921 eV
  Highest occupied state (VBM) at     -7.54470916 eV
  | Occupation number:      2.00000000

  Lowest unoccupied state (CBM) at    -0.08412926 eV
  | Occupation number:      0.00000000

  Overall HOMO-LUMO gap:      7.46057989 eV.

  Total energy components:
  | Sum of eigenvalues            :         -83.53668227 Ha       -2273.14878114 eV
  | XC energy correction          :         -18.43870075 Ha        -501.74257578 eV
  | XC potential correction       :          23.71614670 Ha         645.34918673 eV
  | Free-atom electrostatic energy:         -71.44254799 Ha       -1944.05064310 eV
  | Hartree energy correction     :          -3.23793821 Ha         -88.10878152 eV
  | Entropy correction            :          -0.00000000 Ha          -0.00000000 eV
  | ---------------------------
  | Total energy                  :        -152.93972252 Ha       -4161.70159481 eV
  | Total energy, T -> 0          :        -152.93972252 Ha       -4161.70159481 eV  <-- do not rely on this value for anything but (periodic) metals
  | Electronic free energy        :        -152.93972252 Ha       -4161.70159481 eV

  Derived energy quantities:
  | Kinetic energy                :         152.47458019 Ha        4149.04442802 eV
  | Electrostatic energy          :        -286.97560196 Ha       -7809.00344705 eV
  | Energy correction for multipole
  | error in Hartree potential    :          -0.00554275 Ha          -0.15082579 eV
  | Sum of eigenvalues per atom                           :        -378.85813019 eV
  | Total energy (T->0) per atom                          :        -693.61693247 eV  <-- do not rely on this value for anything but (periodic) metals
  | Electronic free energy per atom                       :        -693.61693247 eV
  Evaluating new KS density.
  Integration grid: deviation in total charge (<rho> - N_e) =   3.552714E-15

  Self-consistency convergence accuracy:
  | Change of charge density      :  0.4560E-01
  | Change of unmixed KS density  :  0.1318E+00
  | Change of sum of eigenvalues  :  0.7757E+00 eV
  | Change of total energy        :  0.6392E-02 eV


------------------------------------------------------------
  End self-consistency iteration #     5       :  max(cpu_time)    wall_clock(cpu1)
  | Time for this iteration                     :        0.130 s           0.131 s
  | Charge density update                       :        0.034 s           0.035 s
  | Density mixing                              :        0.005 s           0.005 s
  | Hartree multipole update                    :        0.003 s           0.003 s
  | Hartree multipole summation                 :        0.040 s           0.040 s
  | Integration                                 :        0.046 s           0.046 s
  | Solution of K.-S. eqns.                     :        0.002 s           0.002 s
  | Total energy evaluation                     :        0.000 s           0.000 s

  Partial memory accounting:
  | Current value for overall tracked memory usage:
  |   Minimum:        4.460 MB (on task 3)
  |   Maximum:        4.516 MB (on task 0)
  |   Average:        4.488 MB
  | Peak value for overall tracked memory usage:
  |   Minimum:        4.536 MB (on task 3 after allocating gradient_basis_wave)
  |   Maximum:        4.591 MB (on task 0 after allocating gradient_basis_wave)
  |   Average:        4.563 MB
  | Largest tracked array allocation so far:
  |   Minimum:        1.452 MB (previous_rho_gradient_diff on task 3)
  |   Maximum:        1.463 MB (previous_rho_gradient_diff on task 0)
  |   Average:        1.458 MB
  Note:  These values currently only include a subset of arrays which are explicitly tracked.
  The "true" memory usage will be greater.
------------------------------------------------------------

------------------------------------------------------------
          Begin self-consistency iteration #    6

  Date     :  20260417, Time     :  150720.181
------------------------------------------------------------
  Pulay mixing of updated and previous charge densities.
  Available memory per node after mixing [GB]:    376.11
  Renormalizing the density to the exact electron count on the 3D integration grid.
  | Formal number of electrons (from input files) :      20.0000000000
  | Integrated number of electrons on 3D grid     :      20.0000000000
  | Charge integration error                      :       0.0000000000
  | Normalization factor for density and gradient :       1.0000000000

  Evaluating partitioned Hartree potential by multipole expansion.
  | Original multipole sum: apparent total charge =  -0.963001E-13
  | Sum of charges compensated after spline to logarithmic grids =   0.290048E-03
  | Analytical far-field extrapolation by fixed multipoles:
  | Hartree multipole sum: apparent total charge =  -0.963985E-13
  Summing up the Hartree potential.
  Time summed over all CPUs for potential: real work        0.039 s, elapsed        0.039 s
  | RMS charge density error from multipole expansion :   0.899775E-02

  Integrating Hamiltonian matrix: batch-based integration.
  Time summed over all CPUs for integration: real work        0.180 s, elapsed        0.181 s

  Updating Kohn-Sham eigenvalues and eigenvectors using ELSI and the ELPA eigensolver.
  Starting ELPA eigensolver
  Finished transformation to standard eigenproblem
  | Time :     0.000 s
  Finished solving standard eigenproblem
  | Time :     0.001 s
  Finished back-transformation of eigenvectors
  | Time :     0.000 s

  Obtaining occupation numbers and electronic chemical potential using ELSI.
  | Note that, for insulating systems, the printed 'chemical potential' value is not uniquely defined.
  | It can be anywhere in the energy gap, as long as it correctly separates occupied and unoccupied states.
  | In systems with a gap, the physically relevant chemical potential is the VBM or HOMO.

  | Chemical potential (Fermi level):    -3.62112958 eV
  Highest occupied state (VBM) at     -7.26477606 eV
  | Occupation number:      2.00000000

  Lowest unoccupied state (CBM) at     0.02251689 eV
  | Occupation number:      0.00000000

  Overall HOMO-LUMO gap:      7.28729296 eV.

  Total energy components:
  | Sum of eigenvalues            :         -83.31862873 Ha       -2267.21524236 eV
  | XC energy correction          :         -18.46758635 Ha        -502.52859284 eV
  | XC potential correction       :          23.75415269 Ha         646.38338226 eV
  | Free-atom electrostatic energy:         -71.44254799 Ha       -1944.05064310 eV
  | Hartree energy correction     :          -3.46390399 Ha         -94.25762325 eV
  | Entropy correction            :          -0.00000000 Ha          -0.00000000 eV
  | ---------------------------
  | Total energy                  :        -152.93851437 Ha       -4161.66871929 eV
  | Total energy, T -> 0          :        -152.93851437 Ha       -4161.66871929 eV  <-- do not rely on this value for anything but (periodic) metals
  | Electronic free energy        :        -152.93851437 Ha       -4161.66871929 eV

  Derived energy quantities:
  | Kinetic energy                :         152.53331741 Ha        4150.64274913 eV
  | Electrostatic energy          :        -287.00424543 Ha       -7809.78287558 eV
  | Energy correction for multipole
  | error in Hartree potential    :          -0.00631268 Ha          -0.17177671 eV
  | Sum of eigenvalues per atom                           :        -377.86920706 eV
  | Total energy (T->0) per atom                          :        -693.61145322 eV  <-- do not rely on this value for anything but (periodic) metals
  | Electronic free energy per atom                       :        -693.61145322 eV
  Evaluating new KS density.
  Integration grid: deviation in total charge (<rho> - N_e) =   0.000000E+00

  Self-consistency convergence accuracy:
  | Change of charge density      :  0.4225E-01
  | Change of unmixed KS density  :  0.2537E-02
  | Change of sum of eigenvalues  :  0.5934E+01 eV
  | Change of total energy        :  0.3288E-01 eV


------------------------------------------------------------
  End self-consistency iteration #     6       :  max(cpu_time)    wall_clock(cpu1)
  | Time for this iteration                     :        0.131 s           0.131 s
  | Charge density update                       :        0.034 s           0.034 s
  | Density mixing                              :        0.007 s           0.007 s
  | Hartree multipole update                    :        0.003 s           0.003 s
  | Hartree multipole summation                 :        0.040 s           0.040 s
  | Integration                                 :        0.045 s           0.045 s
  | Solution of K.-S. eqns.                     :        0.002 s           0.002 s
  | Total energy evaluation                     :        0.000 s           0.000 s

  Partial memory accounting:
  | Current value for overall tracked memory usage:
  |   Minimum:        4.461 MB (on task 3)
  |   Maximum:        4.516 MB (on task 0)
  |   Average:        4.488 MB
  | Peak value for overall tracked memory usage:
  |   Minimum:        4.536 MB (on task 3 after allocating gradient_basis_wave)
  |   Maximum:        4.592 MB (on task 0 after allocating gradient_basis_wave)
  |   Average:        4.564 MB
[...]
  | Hartree energy correction     :          -3.61700833 Ha         -98.42380433 eV
  | Entropy correction            :          -0.00000000 Ha          -0.00000000 eV
  | ---------------------------
  | Total energy                  :        -152.93827299 Ha       -4161.66215123 eV
  | Total energy, T -> 0          :        -152.93827299 Ha       -4161.66215123 eV  <-- do not rely on this value for anything but (periodic) metals
  | Electronic free energy        :        -152.93827299 Ha       -4161.66215123 eV

  Derived energy quantities:
  | Kinetic energy                :         152.57350049 Ha        4151.73618622 eV
  | Electrostatic energy          :        -287.02487902 Ha       -7810.34434398 eV
  | Energy correction for multipole
  | error in Hartree potential    :          -0.00686135 Ha          -0.18670690 eV
  | Sum of eigenvalues per atom                           :        -377.20158631 eV
  | Total energy (T->0) per atom                          :        -693.61035854 eV  <-- do not rely on this value for anything but (periodic) metals
  | Electronic free energy per atom                       :        -693.61035854 eV
  Evaluating new KS density.
  Integration grid: deviation in total charge (<rho> - N_e) =   0.000000E+00

  Self-consistency convergence accuracy:
  | Change of charge density      :  0.3601E-04
  | Change of unmixed KS density  :  0.7298E-04
  | Change of sum of eigenvalues  :  0.7815E-02 eV
  | Change of total energy        :  0.1579E-06 eV


------------------------------------------------------------
  End self-consistency iteration #    11       :  max(cpu_time)    wall_clock(cpu1)
  | Time for this iteration                     :        0.131 s           0.132 s
  | Charge density update                       :        0.034 s           0.034 s
  | Density mixing                              :        0.008 s           0.008 s
  | Hartree multipole update                    :        0.003 s           0.003 s
  | Hartree multipole summation                 :        0.039 s           0.040 s
  | Integration                                 :        0.045 s           0.045 s
  | Solution of K.-S. eqns.                     :        0.002 s           0.002 s
  | Total energy evaluation                     :        0.000 s           0.000 s

  Partial memory accounting:
  | Current value for overall tracked memory usage:
  |   Minimum:        4.461 MB (on task 3)
  |   Maximum:        4.517 MB (on task 0)
  |   Average:        4.489 MB
  | Peak value for overall tracked memory usage:
  |   Minimum:        4.537 MB (on task 3 after allocating gradient_basis_wave)
  |   Maximum:        4.592 MB (on task 0 after allocating gradient_basis_wave)
  |   Average:        4.564 MB
  | Largest tracked array allocation so far:
  |   Minimum:        1.452 MB (previous_rho_gradient_diff on task 3)
  |   Maximum:        1.463 MB (previous_rho_gradient_diff on task 0)
  |   Average:        1.458 MB
  Note:  These values currently only include a subset of arrays which are explicitly tracked.
  The "true" memory usage will be greater.
------------------------------------------------------------

------------------------------------------------------------
          Begin self-consistency iteration #   12

  Date     :  20260417, Time     :  150720.970
------------------------------------------------------------
  Pulay mixing of updated and previous charge densities.
  Available memory per node after mixing [GB]:    376.11
  Renormalizing the density to the exact electron count on the 3D integration grid.
  | Formal number of electrons (from input files) :      20.0000000000
  | Integrated number of electrons on 3D grid     :      20.0000000000
  | Charge integration error                      :       0.0000000000
  | Normalization factor for density and gradient :       1.0000000000

  Evaluating partitioned Hartree potential by multipole expansion.
  | Original multipole sum: apparent total charge =  -0.385201E-13
  | Sum of charges compensated after spline to logarithmic grids =   0.326757E-03
  | Analytical far-field extrapolation by fixed multipoles:
  | Hartree multipole sum: apparent total charge =  -0.389382E-13
  Summing up the Hartree potential.
  Time summed over all CPUs for potential: real work        0.039 s, elapsed        0.039 s
  | RMS charge density error from multipole expansion :   0.918238E-02

  Integrating Hamiltonian matrix: batch-based integration.
  Time summed over all CPUs for integration: real work        0.181 s, elapsed        0.182 s

  Updating Kohn-Sham eigenvalues and eigenvectors using ELSI and the ELPA eigensolver.
  Starting ELPA eigensolver
  Finished transformation to standard eigenproblem
  | Time :     0.000 s
  Finished solving standard eigenproblem
  | Time :     0.001 s
  Finished back-transformation of eigenvectors
  | Time :     0.000 s

  Obtaining occupation numbers and electronic chemical potential using ELSI.
  | Note that, for insulating systems, the printed 'chemical potential' value is not uniquely defined.
  | It can be anywhere in the energy gap, as long as it correctly separates occupied and unoccupied states.
  | In systems with a gap, the physically relevant chemical potential is the VBM or HOMO.

  | Chemical potential (Fermi level):    -3.49190816 eV
  Highest occupied state (VBM) at     -7.07636103 eV
  | Occupation number:      2.00000000

  Lowest unoccupied state (CBM) at     0.09254471 eV
  | Occupation number:      0.00000000

  Overall HOMO-LUMO gap:      7.16890574 eV.

  Total energy components:
  | Sum of eigenvalues            :         -83.17142628 Ha       -2263.20965984 eV
  | XC energy correction          :         -18.48689349 Ha        -503.05396704 eV
  | XC potential correction       :          23.77959758 Ha         647.07577310 eV
  | Free-atom electrostatic energy:         -71.44254799 Ha       -1944.05064310 eV
  | Hartree energy correction     :          -3.61700281 Ha         -98.42365432 eV
  | Entropy correction            :          -0.00000000 Ha          -0.00000000 eV
  | ---------------------------
  | Total energy                  :        -152.93827299 Ha       -4161.66215120 eV
  | Total energy, T -> 0          :        -152.93827299 Ha       -4161.66215120 eV  <-- do not rely on this value for anything but (periodic) metals
  | Electronic free energy        :        -152.93827299 Ha       -4161.66215120 eV

  Derived energy quantities:
  | Kinetic energy                :         152.57350112 Ha        4151.73620357 eV
  | Electrostatic energy          :        -287.02488062 Ha       -7810.34438772 eV
  | Energy correction for multipole
  | error in Hartree potential    :          -0.00686130 Ha          -0.18670557 eV
  | Sum of eigenvalues per atom                           :        -377.20160997 eV
  | Total energy (T->0) per atom                          :        -693.61035853 eV  <-- do not rely on this value for anything but (periodic) metals
  | Electronic free energy per atom                       :        -693.61035853 eV

  Self-consistency convergence accuracy:
  | Change of charge density      :  0.9528E-06
  | Change of unmixed KS density  :  0.2711E-04
  | Change of sum of eigenvalues  : -0.1420E-03 eV
  | Change of total energy        :  0.3151E-07 eV

  Writing Kohn-Sham eigenvalues.

  State    Occupation    Eigenvalue [Ha]    Eigenvalue [eV]
      1       2.00000         -18.788073         -511.24948
      2       2.00000         -18.788073         -511.24948
      3       2.00000          -0.926732          -25.21767
      4       2.00000          -0.926732          -25.21767
      5       2.00000          -0.479203          -13.03978
      6       2.00000          -0.479203          -13.03978
      7       2.00000          -0.338797           -9.21913
      8       2.00000          -0.338797           -9.21913
      9       2.00000          -0.260051           -7.07636
     10       2.00000          -0.260051           -7.07636
     11       0.00000           0.003401            0.09254
     12       0.00000           0.003401            0.09254
     13       0.00000           0.102001            2.77560
     14       0.00000           0.102001            2.77560
     15       0.00000           0.297910            8.10655
     16       0.00000           0.297910            8.10655
     17       0.00000           0.334191            9.09380
     18       0.00000           0.334191            9.09380
     19       0.00000           0.368839           10.03663
     20       0.00000           0.368839           10.03663
     21       0.00000           0.578356           15.73787
     22       0.00000           0.578356           15.73787
     23       0.00000           0.776660           21.13400
     24       0.00000           0.776660           21.13400
     25       0.00000           0.884501           24.06851
     26       0.00000           0.884501           24.06851
     27       0.00000           0.965453           26.27130
     28       0.00000           0.965453           26.27130
     29       0.00000           1.117275           30.40259
     30       0.00000           1.117275           30.40259
     31       0.00000           1.152236           31.35393
     32       0.00000           1.152236           31.35393
     33       0.00000           1.521428           41.40015
     34       0.00000           1.521428           41.40015
     35       0.00000           1.946103           52.95615
     36       0.00000           1.946103           52.95615
     37       0.00000           2.041285           55.54620
     38       0.00000           2.041285           55.54620
     39       0.00000           2.292367           62.37848
     40       0.00000           2.292367           62.37848
     41       0.00000           2.400241           65.31387
     42       0.00000           2.400241           65.31387
     43       0.00000           2.417991           65.79689
     44       0.00000           2.417991           65.79689
     45       0.00000           2.906578           79.09201
     46       0.00000           2.906578           79.09201
     47       0.00000           3.224891           87.75375
     48       0.00000           3.224891           87.75375

  Highest occupied state (VBM) at     -7.07636103 eV
  | Occupation number:      2.00000000

  Lowest unoccupied state (CBM) at     0.09254471 eV
  | Occupation number:      0.00000000

  Overall HOMO-LUMO gap:      7.16890574 eV.

  | Chemical Potential                          :    -3.49190816 eV
  | Note that, for insulating systems, the printed 'chemical potential' value is not uniquely defined.
  | It can be anywhere in the energy gap, as long as it correctly separates occupied and unoccupied states.
  | In systems with a gap, the physically relevant chemical potential is the VBM or HOMO.

  Self-consistency cycle converged.


------------------------------------------------------------
  End self-consistency iteration #    12       :  max(cpu_time)    wall_clock(cpu1)
  | Time for this iteration                     :        0.098 s           0.098 s
  | Charge density update                       :        0.000 s           0.000 s
  | Density mixing                              :        0.008 s           0.008 s
  | Hartree multipole update                    :        0.003 s           0.003 s
  | Hartree multipole summation                 :        0.039 s           0.039 s
  | Integration                                 :        0.045 s           0.046 s
  | Solution of K.-S. eqns.                     :        0.002 s           0.001 s
  | Total energy evaluation                     :        0.000 s           0.000 s

  Partial memory accounting:
  | Current value for overall tracked memory usage:
  |   Minimum:        4.461 MB (on task 3)
  |   Maximum:        4.517 MB (on task 0)
  |   Average:        4.489 MB
  | Peak value for overall tracked memory usage:
  |   Minimum:        4.537 MB (on task 3 after allocating gradient_basis_wave)
  |   Maximum:        4.592 MB (on task 0 after allocating gradient_basis_wave)
  |   Average:        4.564 MB
  | Largest tracked array allocation so far:
  |   Minimum:        1.452 MB (previous_rho_gradient_diff on task 3)
  |   Maximum:        1.463 MB (previous_rho_gradient_diff on task 0)
  |   Average:        1.458 MB
  Note:  These values currently only include a subset of arrays which are explicitly tracked.
  The "true" memory usage will be greater.
------------------------------------------------------------

  Energy and forces in a compact form:
  | Total energy uncorrected      :         -0.416166215119887E+04 eV
  | Total energy corrected        :         -0.416166215119887E+04 eV  <-- do not rely on this value for anything but (periodic) metals
  | Electronic free energy        :         -0.416166215119887E+04 eV

  ------------------------------------ 
  Start decomposition of the XC Energy 
  ------------------------------------ 
  X and C from original XC functional choice 
  Hartree-Fock Energy :          0.000000000 Ha              0.000000000 eV
  X Energy            :        -17.836595491 Ha           -485.358458088 eV
  C Energy            :         -0.650298001 Ha            -17.695508957 eV
  XC Energy w/o HF    :        -18.486893493 Ha           -503.053967044 eV
  Total XC Energy     :        -18.486893493 Ha           -503.053967044 eV
  ------------------------------------ 
  LDA X and C from self-consistent density 
  X Energy LDA        :        -16.204283533 Ha           -440.940989755 eV
  C Energy LDA        :         -1.319089982 Ha            -35.894264681 eV
  ------------------------------------ 
  End decomposition of the XC Energy 
  ------------------------------------ 

------------------------------------------------------------

------------------------------------------------------------------------------
  Final output of selected total energy values:

  The following output summarizes some interesting total energy values
  at the end of a run (AFTER all relaxation, molecular dynamics, etc.).

  | Total energy of the DFT / Hartree-Fock s.c.f. calculation      :          -4161.662151199 eV
  | Final zero-broadening corrected energy (caution - metals only) :          -4161.662151199 eV
  | For reference only, the value of 1 Hartree used in FHI-aims is :             27.211384500 eV

  Before relying on these values, please be sure to understand exactly which
  total energy value is referred to by a given number. Different objects may
  all carry the same name 'total energy'. Definitions:

  Total energy of the DFT / Hartree-Fock s.c.f. calculation:
  | Note that this energy does not include ANY quantities calculated after the
  | s.c.f. cycle, in particular not ANY RPA, MP2, etc. many-body perturbation terms.

  Final zero-broadening corrected energy:
  | For metallic systems only, a broadening of the occupation numbers at the Fermi
  | level can be extrapolated back to zero broadening by an electron-gas inspired
  | formula. For all systems that are not real metals, this value can be
  | meaningless and should be avoided.

------------------------------------------------------------------------------
  Methods described in the following list of references were used in this FHI-aims run.
  If you publish the results, please make sure to cite these reference if they apply.
  FHI-aims is an academic code, and for our developers (often, Ph.D. students
  and postdocs), scientific credit in the community is essential.
  Thank you for helping us!

  For any use of FHI-aims, please cite:

    Volker Blum, Ralf Gehrke, Felix Hanke, Paula Havu, Ville Havu,
    Xinguo Ren, Karsten Reuter, and Matthias Scheffler
    'Ab initio molecular simulations with numeric atom-centered orbitals'
    Computer Physics Communications 180, 2175-2196 (2009)
    http://doi.org/10.1016/j.cpc.2009.06.022


  The ELSI infrastructure was used in your run to solve the Kohn-Sham electronic structure.
  Please check out https://wordpress.elsi-interchange.org to learn more.
  If scalability is important for your project, please acknowledge ELSI by citing:

    V. W-z. Yu, F. Corsetti, A. Garcia, W. P. Huhn, M. Jacquelin, W. Jia,
    B. Lange, L. Lin, J. Lu, W. Mi, A. Seifitokaldani, A. Vazquez-Mayagoitia,
    C. Yang, H. Yang, and V. Blum
    'ELSI: A unified software interface for Kohn-Sham electronic structure solvers'
    Computer Physics Communications 222, 267-285 (2018).
    http://doi.org/10.1016/j.cpc.2017.09.007


  For the real-space grid partitioning and parallelization used in this calculation, please cite:

    Ville Havu, Volker Blum, Paula Havu, and Matthias Scheffler,
    'Efficient O(N) integration for all-electron electronic structure calculation'
    'using numerically tabulated basis functions'
    Journal of Computational Physics 228, 8367-8379 (2009).
    http://doi.org/10.1016/j.jcp.2009.08.008

  Of course, there are many other important community references, e.g., those cited in the
  above references. Our list is limited to references that describe implementations in the
  FHI-aims code. The reason is purely practical (length of this list) - please credit others as well.
------------------------------------------------------------
Warnings summary:

At least    0 warnings were raised during execution.

------------------------------------------------------------
          Leaving FHI-aims.
          Date     :  20260417, Time     :  150721.084

          Computational steps:
          | Number of self-consistency cycles          :           12
          | Number of SCF (re)initializations          :            1

          Detailed time accounting                     :  max(cpu_time)    wall_clock(cpu1)
          | Total time                                  :        1.861 s           1.867 s
          | Preparation time                            :        0.122 s           0.123 s
          | Boundary condition initalization            :        0.001 s           0.001 s
          | Grid partitioning                           :        0.041 s           0.041 s
          | Preloading free-atom quantities on grid     :        0.019 s           0.019 s
          | Free-atom superposition energy              :        0.014 s           0.014 s
          | Total time for integrations                 :        0.608 s           0.608 s
          | Total time for solution of K.-S. equations  :        0.022 s           0.023 s
          | Total time for density update               :        0.407 s           0.409 s
          | Total time for mixing                       :        0.069 s           0.070 s
          | Total time for Hartree multipole update     :        0.036 s           0.036 s
          | Total time for Hartree multipole sum        :        0.472 s           0.475 s
          | Total time for total energy evaluation      :        0.002 s           0.002 s
          | Total time for scaled ZORA corrections      :        0.000 s           0.000 s

          Partial memory accounting:
          | Residual value for overall tracked memory usage across tasks:     0.000000 MB (should be 0.000000 MB)
          | Peak values for overall tracked memory usage:
          |   Minimum:        4.537 MB (on task 3 after allocating gradient_basis_wave)
          |   Maximum:        4.592 MB (on task 0 after allocating gradient_basis_wave)
          |   Average:        4.564 MB
          | Largest tracked array allocation:
          |   Minimum:        1.452 MB (previous_rho_gradient_diff on task 3)
          |   Maximum:        1.463 MB (previous_rho_gradient_diff on task 0)
          |   Average:        1.458 MB
          Note:  These values currently only include a subset of arrays which are explicitly tracked.
          The "true" memory usage will be greater.

          Have a nice day.
------------------------------------------------------------
